3
Energy =   -113.8016644000
    C   -0.159547   -0.770843    0.000000
    C   -0.587791    0.523594    0.000000
    C    0.747338    0.247249    0.000000

FREQUENCIES 3
1166.2427
1166.2427
1614.7505

SYMMETRY D3H
ELECTRONIC_STATE 3-A1'
