3
Energy =   -113.7511752300
    C    0.000000    0.135868   -1.239567
    C   -0.000000   -0.066282    0.024219
    C    0.000000    0.130414    1.305347

FREQUENCIES 3
192.2625
697.3232
1257.8499

SYMMETRY CS
ELECTRONIC_STATE 3-A"
