4
Energy =   -151.7157335400
C  0.053129082  0.782251583 -0.040448073
C -0.050891073  0.064901955  1.188040523
C -0.053129937 -0.782250492  0.040468028
C  0.050891927 -0.064903045 -1.188060477

FREQUENCIES 6
476.5745
594.5766
621.0611
720.1274
890.4549
1286.9647

SYMMETRY D2H
ELECTRONIC_STATE 3-B3U
