4
Energy =   -151.7496981900
C  0.869400000  0.710122000  0.245330000
C  0.129315000  0.075690000  1.233817000
C -0.158501474 -0.124798559 -0.218935575
C -1.019940526 -0.815855441 -0.951825425

FREQUENCIES 6
107.0261
229.0581
702.2379
882.4912
1292.9327
1678.3805

SYMMETRY CS
ELECTRONIC_STATE 1-A'
