4
Energy =   -151.7755253800
    C    0.000000    0.000000    1.950380
    C    0.000000    0.000000    0.644704
    C    0.000000    0.000000   -0.644704
    C    0.000000    0.000000   -1.950380

FREQUENCIES 7
149.1329
210.1060
297.0065
484.6896
938.0821
1602.4373
2126.6799

SYMMETRY D*H
ELECTRONIC_STATE 1-SGG
