4
Energy =   -151.7469173600
C  0.856189177  0.470509702  0.186796559
C -0.311889271  0.725292455 -0.604986580
C  0.384714004 -0.882197717  0.251107148
C -0.929014909 -0.313604440  0.167082873

FREQUENCIES 6
615.2535
636.4419
643.2312
705.9973
705.9973
1318.2655

SYMMETRY D2D
ELECTRONIC_STATE 3-A1
