4
Energy =   -151.7898983300
    C   -0.000000   -0.000000    1.947612
    C    0.000000    0.000000    0.642976
    C   -0.000000    0.000000   -0.642976
    C    0.000000   -0.000000   -1.947612

FREQUENCIES 7
176.1544
176.1544
387.9987
387.9987
941.4681
1596.9770
2123.9943

SYMMETRY D*H
ELECTRONIC_STATE 3-SGG
