4
Energy =   -151.7931420100
    C    0.050491    0.743837   -0.038485
    C   -0.052676    0.067199    1.230368
    C   -0.050546   -0.743774    0.038479
    C    0.052731   -0.067261   -1.230362

FREQUENCIES 6
311.7605
502.0497
952.9875
1013.8691
1288.6370
1393.7002

SYMMETRY D2H
ELECTRONIC_STATE 1-AG
