5
Energy =   -189.7273762400
    C    0.100388   -0.003528   -0.021658
    C    1.307663    0.013214    0.723821
    C   -0.689083    0.002887    2.508282
    C   -0.685894   -0.017661   -1.063930
    C    0.099107    0.005067    1.467361

FREQUENCIES 9
98.2547
252.0559
271.6724
346.5020
723.9655
801.4587
1060.7102
1619.7409
1848.7808

SYMMETRY C2V
ELECTRONIC_STATE 1-A1
