5
Energy =   -189.7218738500
    C    0.000428   -0.662086   -0.000583
    C   -1.390011   -0.401749    0.112525
    C   -0.705982    0.732257   -0.221114
    C    0.704664    0.731953    0.221425
    C    1.390901   -0.400376   -0.112254

FREQUENCIES 9
348.9557
485.4039
575.6232
630.9377
812.9490
899.9118
1018.1672
1233.4816
1433.2731

SYMMETRY C1
ELECTRONIC_STATE 3-A
