5
Energy =   -189.7612747400
C  1.822066064  0.203027722 -0.016823510
C -0.610009672 -0.833446059  0.013083925
C -1.903911570 -0.244587312  0.017440306
C -0.786418330  0.633960967 -0.000378326
C  0.520281507  0.046639682 -0.004852395

FREQUENCIES 9
174.7997
237.2991
381.5799
540.6649
792.4002
909.2382
1103.9900
1417.0268
1808.0540

SYMMETRY C2V
ELECTRONIC_STATE 1-A1
