5
Energy =   -189.7075271600
C -0.747961732 -0.318676918 -1.361878267
C  0.448872399  0.118441618 -0.878624538
C  0.945970234 -0.058904887  1.738154987
C -0.977874601  0.144940618 -0.101236538
C  0.330994700  0.114199569  0.603584355

FREQUENCIES 9
182.6559
287.1427
370.8912
376.9956
596.0327
921.6477
1123.7789
1271.7379
1726.3325

SYMMETRY CS
ELECTRONIC_STATE 3-A"
