5
Energy =   -189.7220794900
C -0.053887855 -0.846982047  0.381956692
C  0.053887855  0.846982047 -0.381956692
C -0.675693067 -0.356939420 -0.886835963
C -0.487966371  0.463094316  0.958059169
C  1.163659438 -0.106154896 -0.071223206

FREQUENCIES 9
426.6076
426.6396
582.1893
582.1895
702.3513
810.3799
1008.1576
1008.1591
1236.3028

SYMMETRY D3H
ELECTRONIC_STATE 1-A1'
