5
Energy =   -189.6806224300
C -0.372740227  0.980755911 -0.361503169
C  0.984280812  0.336326453 -0.144504758
C  0.398044312 -0.993152457  0.294467142
C -0.316484955  0.155046914  0.838437507
C -0.693099942 -0.478976821 -0.626896721

FREQUENCIES 9
416.4410
423.7774
489.7300
613.4250
809.8980
888.0267
908.1902
1129.8407
1249.9884

SYMMETRY C2V
ELECTRONIC_STATE 3-B2
