5
Energy =   -189.8356383200
    C    0.000000    0.000000    2.560114
    C    0.000000    0.000000    1.278164
    C    0.000000    0.000000    0.000000
    C    0.000000    0.000000   -1.278164
    C    0.000000    0.000000   -2.560114

FREQUENCIES 10
125.2219
125.2219
237.0112
237.0112
614.6919
614.6919
798.4044
1495.0032
2041.7722
2254.4927

SYMMETRY D*H
ELECTRONIC_STATE 1-SGG
