5
Energy =   -189.7519227100
    C    0.000000    0.000000    2.550000
    C    0.000000    0.000000    1.292000
    C    0.000000    0.000000    0.000000
    C    0.000000    0.000000   -1.292000
    C    0.000000    0.000000   -2.550000

FREQUENCIES 10
147.1238
175.5879
309.3641
398.2773
704.7569
758.9518
792.3148
1584.0632
1991.3833
2391.1831

SYMMETRY D*H
ELECTRONIC_STATE 3-PIG
