2
Energy =   -75.7792326870
    C    0.650535    0.000000    0.000000
    C   -0.650535    0.000000    0.000000

FREQUENCIES 1
1693.6178

SYMMETRY D*H
ELECTRONIC_STATE 3-PIU
