2
Energy =   -75.7826438160
    C    0.623543    0.000000    0.000000
    C   -0.623543    0.000000    0.000000

FREQUENCIES 1
1872.9045

SYMMETRY D*H
ELECTRONIC_STATE 1-SGG
