2
Energy =   -75.8561424407255
    C    0.823543    0.000000    0.000000
    C   -0.823543    0.000000    0.000000

FREQUENCIES 1
1872.9045

SYMMETRY D*H
ELECTRONIC_STATE 1-SGG
